LAMMPS (29 Oct 2020)
# 2d LJ crack simulation

dimension	2
boundary	s s p

atom_style	atomic
neighbor	0.3 bin
neigh_modify	delay 5

# create geometry

lattice		hex 0.93
Lattice spacing in x,y,z = 1.1142771 1.9299846 1.1142771
region		box block 0 100 0 40 -0.25 0.25
create_box	5 box
Created orthogonal box = (0.0000000 0.0000000 -0.27856928) to (111.42771 77.199383 0.27856928)
  1 by 1 by 1 MPI processor grid
create_atoms	1 box
Created 8141 atoms
  create_atoms CPU = 0.005 seconds

mass		1 0.5
mass		2 0.5
mass		3 0.5
mass		4 0.5
mass		5 0.5

# LJ potentials

pair_style	lj/cut 2.5
pair_coeff	* * 1.0 1.0 2.5

# define groups

region	        1 block INF INF INF 1.25 INF INF
group		lower region 1
302 atoms in group lower
region		2 block INF INF 38.75 INF INF INF
group		upper region 2
302 atoms in group upper
group		boundary union lower upper
604 atoms in group boundary
group		mobile subtract all boundary
7537 atoms in group mobile

region		leftupper block INF 20 20 INF INF INF
region		leftlower block INF 20 INF 20 INF INF
group		leftupper region leftupper
841 atoms in group leftupper
group		leftlower region leftlower
841 atoms in group leftlower

set		group leftupper type 2
Setting atom values ...
  841 settings made for type
set		group leftlower type 3
Setting atom values ...
  841 settings made for type
set		group lower type 4
Setting atom values ...
  302 settings made for type
set		group upper type 5
Setting atom values ...
  302 settings made for type

# initial velocities

compute	  	new mobile temp
velocity	mobile create 0.01 887723 temp new
velocity	upper set 0.0 0.3 0.0
velocity	mobile ramp vy 0.0 0.3 y 1.25 38.75 sum yes

# fixes

fix		1 all nve
fix		2 boundary setforce NULL 0.0 0.0

# run

timestep	0.003
thermo		200
thermo_modify	temp new
WARNING: Temperature for thermo pressure is not for group all (../thermo.cpp:472)

neigh_modify	exclude type 2 3

dump		1 all atom 500 dump.crack

#dump		2 all image 250 image.*.jpg type type #		zoom 1.6 adiam 1.5
#dump_modify	2 pad 4

#dump		3 all movie 250 movie.mpg type type #		zoom 1.6 adiam 1.5
#dump_modify	3 pad 4

run		5000
Neighbor list info ...
  update every 1 steps, delay 5 steps, check yes
  max neighbors/atom: 2000, page size: 100000
  master list distance cutoff = 2.8
  ghost atom cutoff = 2.8
  binsize = 1.4, bins = 80 56 1
  1 neighbor lists, perpetual/occasional/extra = 1 0 0
  (1) pair lj/cut, perpetual
      attributes: half, newton on
      pair build: half/bin/atomonly/newton
      stencil: half/bin/2d/newton
      bin: standard
Per MPI rank memory allocation (min/avg/max) = 4.423 | 4.423 | 4.423 Mbytes
Step Temp E_pair E_mol TotEng Press Volume 
       0  0.037779484   -3.2595015            0   -3.2245296  -0.06064717    8605.5917 
     200  0.033179333   -3.2541418            0   -3.2234282  -0.25791349    8636.5629 
     400  0.032747814   -3.2508718            0   -3.2205577  -0.44273077    8674.1076 
     600  0.033421607   -3.2469015            0   -3.2159636  -0.60102703     8713.438 
     800  0.034114418    -3.241737            0   -3.2101578  -0.73093315    8749.6426 
    1000  0.035485884    -3.235844            0   -3.2029952  -0.83960076    8785.4824 
    1200  0.036605629   -3.2289811            0   -3.1950959  -0.92702441    8827.1595 
    1400  0.037696604     -3.22149            0   -3.1865948  -0.99295059    8854.0481 
    1600  0.038981606    -3.213223            0   -3.1771383   -1.0404591    8890.8039 
    1800  0.040145877   -3.2043076            0   -3.1671452   -1.0655298    8924.6883 
    2000  0.040774737   -3.1945419            0   -3.1567973   -1.0660836    8961.5234 
    2200  0.041291966   -3.1843208            0   -3.1460975   -1.0532182    8988.6985 
    2400  0.042002756   -3.1736227            0   -3.1347413   -1.0272042     9027.367 
    2600  0.042649773   -3.1624862            0   -3.1230059  -0.98852955    9056.3399 
    2800  0.043582427   -3.1516796            0    -3.111336  -0.95734672    9083.7586 
    3000  0.044567463   -3.1408418            0   -3.0995864  -0.95317809    9117.0213 
    3200  0.046131859   -3.1302075            0    -3.087504  -0.95961994    9149.1382 
    3400  0.048188953   -3.1201645            0   -3.0755568  -0.98252129    9190.0743 
    3600  0.048570012   -3.1094593            0   -3.0644988  -0.99733856    9230.8099 
    3800  0.047670593   -3.0993348            0   -3.0552068   -1.0206378    9264.8042 
    4000  0.049278024   -3.0896489            0    -3.044033   -1.0594688    9293.4208 
    4200  0.051735485    -3.079941            0   -3.0320503    -1.107545    9315.0423 
    4400  0.054439856    -3.070491            0   -3.0200968   -1.1705847    9373.8579 
    4600  0.057134771   -3.0621197            0   -3.0092309   -1.2456523     9431.102 
    4800  0.058306578   -3.0541563            0   -3.0001828   -1.2551597    9484.1402 
    5000  0.062310371    -3.049441            0   -2.9917612    -1.180739    9534.9875 
Loop time of 17.6521 on 1 procs for 5000 steps with 8141 atoms

Performance: 73418.897 tau/day, 283.252 timesteps/s
99.9% CPU use with 1 MPI tasks x no OpenMP threads

MPI task timing breakdown:
Section |  min time  |  avg time  |  max time  |%varavg| %total
---------------------------------------------------------------
Pair    | 14.796     | 14.796     | 14.796     |   0.0 | 83.82
Neigh   | 0.83487    | 0.83487    | 0.83487    |   0.0 |  4.73
Comm    | 0.014027   | 0.014027   | 0.014027   |   0.0 |  0.08
Output  | 0.19167    | 0.19167    | 0.19167    |   0.0 |  1.09
Modify  | 1.3412     | 1.3412     | 1.3412     |   0.0 |  7.60
Other   |            | 0.4739     |            |       |  2.68

Nlocal:        8141.00 ave        8141 max        8141 min
Histogram: 1 0 0 0 0 0 0 0 0 0
Nghost:        0.00000 ave           0 max           0 min
Histogram: 1 0 0 0 0 0 0 0 0 0
Neighs:        71048.0 ave       71048 max       71048 min
Histogram: 1 0 0 0 0 0 0 0 0 0

Total # of neighbors = 71048
Ave neighs/atom = 8.7271834
Neighbor list builds = 128
Dangerous builds = 0
Total wall time: 0:00:17
