LAMMPS (29 Oct 2020)
# 2d LJ crack simulation

dimension	2
boundary	s s p

atom_style	atomic
neighbor	0.3 bin
neigh_modify	delay 5

# create geometry

lattice		hex 0.93
Lattice spacing in x,y,z = 1.1142771 1.9299846 1.1142771
region		box block 0 100 0 40 -0.25 0.25
create_box	5 box
Created orthogonal box = (0.0000000 0.0000000 -0.27856928) to (111.42771 77.199383 0.27856928)
  1 by 1 by 1 MPI processor grid
create_atoms	1 box
Created 8141 atoms
  create_atoms CPU = 0.005 seconds

mass		1 2.0
mass		2 2.0
mass		3 2.0
mass		4 2.0
mass		5 2.0

# LJ potentials

pair_style	lj/cut 2.5
pair_coeff	* * 1.0 1.0 2.5

# define groups

region	        1 block INF INF INF 1.25 INF INF
group		lower region 1
302 atoms in group lower
region		2 block INF INF 38.75 INF INF INF
group		upper region 2
302 atoms in group upper
group		boundary union lower upper
604 atoms in group boundary
group		mobile subtract all boundary
7537 atoms in group mobile

region		leftupper block INF 20 20 INF INF INF
region		leftlower block INF 20 INF 20 INF INF
group		leftupper region leftupper
841 atoms in group leftupper
group		leftlower region leftlower
841 atoms in group leftlower

set		group leftupper type 2
Setting atom values ...
  841 settings made for type
set		group leftlower type 3
Setting atom values ...
  841 settings made for type
set		group lower type 4
Setting atom values ...
  302 settings made for type
set		group upper type 5
Setting atom values ...
  302 settings made for type

# initial velocities

compute	  	new mobile temp
velocity	mobile create 0.01 887723 temp new
velocity	upper set 0.0 0.3 0.0
velocity	mobile ramp vy 0.0 0.3 y 1.25 38.75 sum yes

# fixes

fix		1 all nve
fix		2 boundary setforce NULL 0.0 0.0

# run

timestep	0.003
thermo		200
thermo_modify	temp new
WARNING: Temperature for thermo pressure is not for group all (../thermo.cpp:472)

neigh_modify	exclude type 2 3

dump		1 all atom 500 dump.crack

#dump		2 all image 250 image.*.jpg type type #		zoom 1.6 adiam 1.5
#dump_modify	2 pad 4

#dump		3 all movie 250 movie.mpg type type #		zoom 1.6 adiam 1.5
#dump_modify	3 pad 4

run		5000
Neighbor list info ...
  update every 1 steps, delay 5 steps, check yes
  max neighbors/atom: 2000, page size: 100000
  master list distance cutoff = 2.8
  ghost atom cutoff = 2.8
  binsize = 1.4, bins = 80 56 1
  1 neighbor lists, perpetual/occasional/extra = 1 0 0
  (1) pair lj/cut, perpetual
      attributes: half, newton on
      pair build: half/bin/atomonly/newton
      stencil: half/bin/2d/newton
      bin: standard
Per MPI rank memory allocation (min/avg/max) = 4.423 | 4.423 | 4.423 Mbytes
Step Temp E_pair E_mol TotEng Press Volume 
       0   0.12143465   -3.2595015            0   -3.1470913  0.012610471    8605.5917 
     200   0.11509611   -3.2525278            0   -3.1459851  -0.18090481    8640.0788 
     400   0.11655371    -3.251188            0    -3.143296  -0.39521458     8680.289 
     600   0.11586975   -3.2463444            0   -3.1390855  -0.56890311    8723.1585 
     800   0.11654638   -3.2409116            0   -3.1330263  -0.73122228    8748.9941 
    1000   0.11733456   -3.2342213            0   -3.1256064  -0.86883292    8791.8288 
    1200   0.11837175   -3.2264621            0   -3.1168872  -0.98991033    8829.8461 
    1400   0.11950447   -3.2181233            0   -3.1074999   -1.0960125    8871.2685 
    1600   0.12121464   -3.2088381            0   -3.0966316   -1.1866102    8897.7257 
    1800   0.12310753   -3.1988629            0   -3.0849041   -1.2633261    8935.1632 
    2000   0.12540434   -3.1884572            0   -3.0723723   -1.3273037    8975.4008 
    2200   0.12823562   -3.1775652            0   -3.0588594   -1.3825471    9012.0117 
    2400   0.13130056   -3.1662741            0   -3.0447311   -1.4219566    9048.4952 
    2600   0.13393729   -3.1546227            0    -3.030639   -1.4531006    9081.9224 
    2800   0.13701495   -3.1427878            0   -3.0159552   -1.4753016    9116.7686 
    3000   0.14016767   -3.1309438            0   -3.0011927   -1.4945155    9148.9829 
    3200   0.14339513   -3.1187904            0   -2.9860517   -1.5034483    9191.8761 
    3400   0.14627062   -3.1061716            0   -2.9707711   -1.5036386    9218.2884 
    3600   0.14921645   -3.0933985            0   -2.9552711   -1.4945754    9256.6336 
    3800   0.15240023   -3.0805355            0    -2.939461    -1.478334    9284.3302 
    4000   0.15540958   -3.0676573            0    -2.923797   -1.4533253    9317.0109 
    4200   0.15864356   -3.0549244            0   -2.9080705   -1.4177334    9352.7033 
    4400   0.16210383   -3.0422984            0   -2.8922413   -1.3770258    9377.2217 
    4600   0.16502387   -3.0293807            0   -2.8766207   -1.3242816    9403.6307 
    4800   0.16785035   -3.0164515            0    -2.861075   -1.2703911    9433.0274 
    5000   0.16690364   -3.0028336            0   -2.8483334   -1.2143239    9459.2162 
Loop time of 17.3186 on 1 procs for 5000 steps with 8141 atoms

Performance: 74832.937 tau/day, 288.707 timesteps/s
99.9% CPU use with 1 MPI tasks x no OpenMP threads

MPI task timing breakdown:
Section |  min time  |  avg time  |  max time  |%varavg| %total
---------------------------------------------------------------
Pair    | 14.777     | 14.777     | 14.777     |   0.0 | 85.33
Neigh   | 0.5321     | 0.5321     | 0.5321     |   0.0 |  3.07
Comm    | 0.010731   | 0.010731   | 0.010731   |   0.0 |  0.06
Output  | 0.19175    | 0.19175    | 0.19175    |   0.0 |  1.11
Modify  | 1.3284     | 1.3284     | 1.3284     |   0.0 |  7.67
Other   |            | 0.4781     |            |       |  2.76

Nlocal:        8141.00 ave        8141 max        8141 min
Histogram: 1 0 0 0 0 0 0 0 0 0
Nghost:        0.00000 ave           0 max           0 min
Histogram: 1 0 0 0 0 0 0 0 0 0
Neighs:        71319.0 ave       71319 max       71319 min
Histogram: 1 0 0 0 0 0 0 0 0 0

Total # of neighbors = 71319
Ave neighs/atom = 8.7604717
Neighbor list builds = 84
Dangerous builds = 0
Total wall time: 0:00:17
