LAMMPS (29 Oct 2020)
# 2d LJ crack simulation

dimension	2
boundary	s s p

atom_style	atomic
neighbor	0.3 bin
neigh_modify	delay 5

# create geometry

lattice		hex 0.93
Lattice spacing in x,y,z = 1.1142771 1.9299846 1.1142771
region		box block 0 100 0 40 -0.25 0.25
create_box	5 box
Created orthogonal box = (0.0000000 0.0000000 -0.27856928) to (111.42771 77.199383 0.27856928)
  1 by 1 by 1 MPI processor grid
create_atoms	1 box
Created 8141 atoms
  create_atoms CPU = 0.005 seconds

mass		1 5.0
mass		2 5.0
mass		3 5.0
mass		4 5.0
mass		5 5.0

# LJ potentials

pair_style	lj/cut 2.5
pair_coeff	* * 1.0 1.0 2.5

# define groups

region	        1 block INF INF INF 1.25 INF INF
group		lower region 1
302 atoms in group lower
region		2 block INF INF 38.75 INF INF INF
group		upper region 2
302 atoms in group upper
group		boundary union lower upper
604 atoms in group boundary
group		mobile subtract all boundary
7537 atoms in group mobile

region		leftupper block INF 20 20 INF INF INF
region		leftlower block INF 20 INF 20 INF INF
group		leftupper region leftupper
841 atoms in group leftupper
group		leftlower region leftlower
841 atoms in group leftlower

set		group leftupper type 2
Setting atom values ...
  841 settings made for type
set		group leftlower type 3
Setting atom values ...
  841 settings made for type
set		group lower type 4
Setting atom values ...
  302 settings made for type
set		group upper type 5
Setting atom values ...
  302 settings made for type

# initial velocities

compute	  	new mobile temp
velocity	mobile create 0.01 887723 temp new
velocity	upper set 0.0 0.3 0.0
velocity	mobile ramp vy 0.0 0.3 y 1.25 38.75 sum yes

# fixes

fix		1 all nve
fix		2 boundary setforce NULL 0.0 0.0

# run

timestep	0.003
thermo		200
thermo_modify	temp new
WARNING: Temperature for thermo pressure is not for group all (../thermo.cpp:472)

neigh_modify	exclude type 2 3

dump		1 all atom 500 dump.crack

#dump		2 all image 250 image.*.jpg type type #		zoom 1.6 adiam 1.5
#dump_modify	2 pad 4

#dump		3 all movie 250 movie.mpg type type #		zoom 1.6 adiam 1.5
#dump_modify	3 pad 4

run		5000
Neighbor list info ...
  update every 1 steps, delay 5 steps, check yes
  max neighbors/atom: 2000, page size: 100000
  master list distance cutoff = 2.8
  ghost atom cutoff = 2.8
  binsize = 1.4, bins = 80 56 1
  1 neighbor lists, perpetual/occasional/extra = 1 0 0
  (1) pair lj/cut, perpetual
      attributes: half, newton on
      pair build: half/bin/atomonly/newton
      stencil: half/bin/2d/newton
      bin: standard
Per MPI rank memory allocation (min/avg/max) = 4.423 | 4.423 | 4.423 Mbytes
Step Temp E_pair E_mol TotEng Press Volume 
       0   0.28887765   -3.2595015            0   -2.9920918   0.15924192    8605.5917 
     200   0.28312129   -3.2531557            0   -2.9910747 -0.042191862    8641.0988 
     400   0.28408396   -3.2513027            0   -2.9883304  -0.26043335    8685.2047 
     600   0.28282999   -3.2459685            0   -2.9841571  -0.44201022    8714.0516 
     800   0.28306566   -3.2406114            0   -2.9785818  -0.61333848    8761.2676 
    1000   0.28309318   -3.2335555            0   -2.9715005  -0.76416656    8789.7335 
    1200   0.28368296   -3.2254749            0   -2.9628739  -0.90020865    8831.6119 
    1400   0.28479418   -3.2167103            0   -2.9530807   -1.0236718    8859.6222 
    1600   0.28581244   -3.2067748            0   -2.9422025    -1.127344    8906.2825 
    1800   0.28740323   -3.1961858            0    -2.930141   -1.2204929    8949.0735 
    2000   0.28902668    -3.184871            0   -2.9173234   -1.3052664    8973.8803 
    2200   0.29065883    -3.172997            0   -2.9039385   -1.3754784    9018.1895 
    2400   0.29240214   -3.1605402            0   -2.8898679   -1.4370848    9048.0311 
    2600   0.29489566   -3.1477459            0   -2.8747655   -1.4881892    9089.8002 
    2800   0.29761878   -3.1344442            0    -2.858943   -1.5326581    9116.3745 
    3000   0.30055649   -3.1208797            0   -2.8426591   -1.5656442    9160.4414 
    3200    0.3038434   -3.1070514            0   -2.8257882   -1.5923748    9202.5185 
    3400   0.30755105   -3.0930672            0   -2.8083719   -1.6171307    9226.9687 
    3600   0.31157244   -3.0790882            0   -2.7906703   -1.6331907    9268.2159 
    3800    0.3158947   -3.0650893            0   -2.7726704   -1.6454898    9307.7747 
    4000   0.32082242   -3.0510322            0   -2.7540518   -1.6505793    9345.1536 
    4200   0.32596974   -3.0369083            0   -2.7351631   -1.6520172    9380.8392 
    4400   0.33117841   -3.0226565            0   -2.7160897   -1.6488403    9417.3429 
    4600   0.33678852   -3.0085782            0   -2.6968182   -1.6427084    9453.6137 
    4800    0.3422544   -2.9945146            0   -2.6776949   -1.6314729      9488.14 
    5000   0.34736842   -2.9803501            0   -2.6587964   -1.6178087    9520.4658 
Loop time of 17.7961 on 1 procs for 5000 steps with 8141 atoms

Performance: 72825.038 tau/day, 280.961 timesteps/s
99.9% CPU use with 1 MPI tasks x no OpenMP threads

MPI task timing breakdown:
Section |  min time  |  avg time  |  max time  |%varavg| %total
---------------------------------------------------------------
Pair    | 14.838     | 14.838     | 14.838     |   0.0 | 83.38
Neigh   | 0.40953    | 0.40953    | 0.40953    |   0.0 |  2.30
Comm    | 0.0097853  | 0.0097853  | 0.0097853  |   0.0 |  0.05
Output  | 0.19202    | 0.19202    | 0.19202    |   0.0 |  1.08
Modify  | 1.868      | 1.868      | 1.868      |   0.0 | 10.50
Other   |            | 0.4791     |            |       |  2.69

Nlocal:        8141.00 ave        8141 max        8141 min
Histogram: 1 0 0 0 0 0 0 0 0 0
Nghost:        0.00000 ave           0 max           0 min
Histogram: 1 0 0 0 0 0 0 0 0 0
Neighs:        71356.0 ave       71356 max       71356 min
Histogram: 1 0 0 0 0 0 0 0 0 0

Total # of neighbors = 71356
Ave neighs/atom = 8.7650166
Neighbor list builds = 67
Dangerous builds = 0
Total wall time: 0:00:17
