LAMMPS (29 Oct 2020)
# 2d LJ crack simulation

dimension	2
boundary	s s p

atom_style	atomic
neighbor	0.3 bin
neigh_modify	delay 5

# create geometry

lattice		hex 0.93
Lattice spacing in x,y,z = 1.1142771 1.9299846 1.1142771
region		box block 0 100 0 40 -0.25 0.25
create_box	5 box
Created orthogonal box = (0.0000000 0.0000000 -0.27856928) to (111.42771 77.199383 0.27856928)
  1 by 1 by 1 MPI processor grid
create_atoms	1 box
Created 8141 atoms
  create_atoms CPU = 0.005 seconds

mass		1 1.5
mass		2 1.5
mass		3 1.5
mass		4 1.5
mass		5 1.5

# LJ potentials

pair_style	lj/cut 2.5
pair_coeff	* * 1.0 1.0 2.5

# define groups

region	        1 block INF INF INF 1.25 INF INF
group		lower region 1
302 atoms in group lower
region		2 block INF INF 38.75 INF INF INF
group		upper region 2
302 atoms in group upper
group		boundary union lower upper
604 atoms in group boundary
group		mobile subtract all boundary
7537 atoms in group mobile

region		leftupper block INF 20 20 INF INF INF
region		leftlower block INF 20 INF 20 INF INF
group		leftupper region leftupper
841 atoms in group leftupper
group		leftlower region leftlower
841 atoms in group leftlower

set		group leftupper type 2
Setting atom values ...
  841 settings made for type
set		group leftlower type 3
Setting atom values ...
  841 settings made for type
set		group lower type 4
Setting atom values ...
  302 settings made for type
set		group upper type 5
Setting atom values ...
  302 settings made for type

# initial velocities

compute	  	new mobile temp
velocity	mobile create 0.01 887723 temp new
velocity	upper set 0.0 0.3 0.0
velocity	mobile ramp vy 0.0 0.3 y 1.25 38.75 sum yes

# fixes

fix		1 all nve
fix		2 boundary setforce NULL 0.0 0.0

# run

timestep	0.003
thermo		200
thermo_modify	temp new
WARNING: Temperature for thermo pressure is not for group all (../thermo.cpp:472)

neigh_modify	exclude type 2 3

dump		1 all atom 500 dump.crack

#dump		2 all image 250 image.*.jpg type type #		zoom 1.6 adiam 1.5
#dump_modify	2 pad 4

#dump		3 all movie 250 movie.mpg type type #		zoom 1.6 adiam 1.5
#dump_modify	3 pad 4

run		5000
Neighbor list info ...
  update every 1 steps, delay 5 steps, check yes
  max neighbors/atom: 2000, page size: 100000
  master list distance cutoff = 2.8
  ghost atom cutoff = 2.8
  binsize = 1.4, bins = 80 56 1
  1 neighbor lists, perpetual/occasional/extra = 1 0 0
  (1) pair lj/cut, perpetual
      attributes: half, newton on
      pair build: half/bin/atomonly/newton
      stencil: half/bin/2d/newton
      bin: standard
Per MPI rank memory allocation (min/avg/max) = 4.423 | 4.423 | 4.423 Mbytes
Step Temp E_pair E_mol TotEng Press Volume 
       0  0.093539243   -3.2595015            0   -3.1729136  -0.01181781    8605.5917 
     200  0.088779234    -3.253971            0   -3.1717894  -0.21486374    8639.0834 
     400  0.088026634   -3.2506194            0   -3.1691345  -0.41162617    8679.8696 
     600  0.088427047    -3.246617            0   -3.1647614  -0.58927659     8718.363 
     800  0.088897839   -3.2410197            0   -3.1587283  -0.74315762    8758.4267 
    1000  0.090015702    -3.234507            0   -3.1511809  -0.87641303     8797.437 
    1200  0.090842143   -3.2270206            0   -3.1429294  -0.99431844    8822.2224 
    1400  0.092413379    -3.218711            0   -3.1331653   -1.0921365    8862.4482 
    1600   0.09428414    -3.209693            0   -3.1224156   -1.1769775    8899.5305 
    1800  0.096365526   -3.2000544            0   -3.1108503   -1.2470563    8935.0835 
    2000  0.098990302   -3.1899337            0   -3.0982999   -1.3049433    8972.7056 
    2200   0.10112676   -3.1793061            0   -3.0856946   -1.3476254    9005.7567 
    2400   0.10360725   -3.1683544            0   -3.0724468   -1.3789668    9038.3224 
    2600   0.10590506    -3.157007            0   -3.0589723   -1.4008902    9071.5266 
    2800   0.10849711   -3.1453992            0   -3.0449651   -1.4112244    9112.7791 
    3000   0.11119773   -3.1336918            0   -3.0307577   -1.4127966    9148.9961 
    3200   0.11420458   -3.1219299            0   -3.0162124   -1.4047469    9179.2732 
    3400   0.11689918   -3.1099049            0   -3.0016931    -1.388368    9215.3557 
    3600   0.11993836   -3.0978977            0   -2.9868726   -1.3592445    9246.7586 
    3800   0.12291757   -3.0859052            0   -2.9721223   -1.3255335    9275.5539 
    4000     0.125966   -3.0738116            0   -2.9572068   -1.2805417    9307.3635 
    4200   0.12895184   -3.0615358            0   -2.9421671    -1.232425    9340.3887 
    4400   0.13099488    -3.049359            0    -2.928099   -1.1817003    9360.3487 
    4600   0.12862477   -3.0364381            0   -2.9173721   -1.1288295    9380.3944 
    4800   0.12623401   -3.0234494            0   -2.9065965   -1.0852568    9401.6361 
    5000   0.12768071   -3.0120905            0   -2.8938984   -1.0608638    9432.7963 
Loop time of 17.9906 on 1 procs for 5000 steps with 8141 atoms

Performance: 72037.725 tau/day, 277.923 timesteps/s
99.9% CPU use with 1 MPI tasks x no OpenMP threads

MPI task timing breakdown:
Section |  min time  |  avg time  |  max time  |%varavg| %total
---------------------------------------------------------------
Pair    | 14.881     | 14.881     | 14.881     |   0.0 | 82.72
Neigh   | 0.56194    | 0.56194    | 0.56194    |   0.0 |  3.12
Comm    | 0.01199    | 0.01199    | 0.01199    |   0.0 |  0.07
Output  | 0.19308    | 0.19308    | 0.19308    |   0.0 |  1.07
Modify  | 1.8648     | 1.8648     | 1.8648     |   0.0 | 10.37
Other   |            | 0.4777     |            |       |  2.66

Nlocal:        8141.00 ave        8141 max        8141 min
Histogram: 1 0 0 0 0 0 0 0 0 0
Nghost:        0.00000 ave           0 max           0 min
Histogram: 1 0 0 0 0 0 0 0 0 0
Neighs:        71323.0 ave       71323 max       71323 min
Histogram: 1 0 0 0 0 0 0 0 0 0

Total # of neighbors = 71323
Ave neighs/atom = 8.7609630
Neighbor list builds = 90
Dangerous builds = 0
Total wall time: 0:00:18
