LAMMPS (29 Oct 2020)
# 2d LJ crack simulation

dimension	2
boundary	s s p

atom_style	atomic
neighbor	0.3 bin
neigh_modify	delay 5

# create geometry

lattice		hex 0.93
Lattice spacing in x,y,z = 1.1142771 1.9299846 1.1142771
region		box block 0 100 0 40 -0.25 0.25
create_box	5 box
Created orthogonal box = (0.0000000 0.0000000 -0.27856928) to (111.42771 77.199383 0.27856928)
  1 by 1 by 1 MPI processor grid
create_atoms	1 box
Created 8141 atoms
  create_atoms CPU = 0.005 seconds

mass		1 4.0
mass		2 4.0
mass		3 4.0
mass		4 4.0
mass		5 4.0

# LJ potentials

pair_style	lj/cut 2.5
pair_coeff	* * 1.0 1.0 2.5

# define groups

region	        1 block INF INF INF 1.25 INF INF
group		lower region 1
302 atoms in group lower
region		2 block INF INF 38.75 INF INF INF
group		upper region 2
302 atoms in group upper
group		boundary union lower upper
604 atoms in group boundary
group		mobile subtract all boundary
7537 atoms in group mobile

region		leftupper block INF 20 20 INF INF INF
region		leftlower block INF 20 INF 20 INF INF
group		leftupper region leftupper
841 atoms in group leftupper
group		leftlower region leftlower
841 atoms in group leftlower

set		group leftupper type 2
Setting atom values ...
  841 settings made for type
set		group leftlower type 3
Setting atom values ...
  841 settings made for type
set		group lower type 4
Setting atom values ...
  302 settings made for type
set		group upper type 5
Setting atom values ...
  302 settings made for type

# initial velocities

compute	  	new mobile temp
velocity	mobile create 0.01 887723 temp new
velocity	upper set 0.0 0.3 0.0
velocity	mobile ramp vy 0.0 0.3 y 1.25 38.75 sum yes

# fixes

fix		1 all nve
fix		2 boundary setforce NULL 0.0 0.0

# run

timestep	0.003
thermo		200
thermo_modify	temp new
WARNING: Temperature for thermo pressure is not for group all (../thermo.cpp:472)

neigh_modify	exclude type 2 3

dump		1 all atom 500 dump.crack

#dump		2 all image 250 image.*.jpg type type #		zoom 1.6 adiam 1.5
#dump_modify	2 pad 4

#dump		3 all movie 250 movie.mpg type type #		zoom 1.6 adiam 1.5
#dump_modify	3 pad 4

run		5000
Neighbor list info ...
  update every 1 steps, delay 5 steps, check yes
  max neighbors/atom: 2000, page size: 100000
  master list distance cutoff = 2.8
  ghost atom cutoff = 2.8
  binsize = 1.4, bins = 80 56 1
  1 neighbor lists, perpetual/occasional/extra = 1 0 0
  (1) pair lj/cut, perpetual
      attributes: half, newton on
      pair build: half/bin/atomonly/newton
      stencil: half/bin/2d/newton
      bin: standard
Per MPI rank memory allocation (min/avg/max) = 4.423 | 4.423 | 4.423 Mbytes
Step Temp E_pair E_mol TotEng Press Volume 
       0   0.23305483   -3.2595015            0   -3.0437662   0.11035734    8605.5917 
     200   0.22802442   -3.2538154            0   -3.0427366 -0.095313565    8640.9143 
     400   0.22721412   -3.2502773            0   -3.0399487   -0.2991498    8683.8491 
     600    0.2275997   -3.2465112            0   -3.0358256  -0.49077199    8712.6891 
     800   0.22742509   -3.2407344            0   -3.0302104  -0.65501225    8758.7368 
    1000   0.22784101   -3.2338471            0   -3.0229382  -0.80650858     8785.316 
    1200   0.22847745   -3.2257624            0   -3.0142642  -0.93805141    8827.9984 
    1400   0.22951158   -3.2169506            0   -3.0044952   -1.0539843    8873.2964 
    1600   0.23096231   -3.2072257            0   -2.9934274   -1.1576701    8902.2515 
    1800   0.23247385   -3.1967611            0   -2.9815636     -1.24891    8939.8634 
    2000   0.23387912   -3.1856572            0   -2.9691588   -1.3266838    8983.6656 
    2200   0.23574393   -3.1739228            0   -2.9556983   -1.3940997     9012.746 
    2400   0.23819236   -3.1617334            0   -2.9412423   -1.4510019    9052.1829 
    2600   0.24082779   -3.1491473            0   -2.9262167    -1.499075    9080.2321 
    2800   0.24376752   -3.1361638            0    -2.910512   -1.5359205    9124.4527 
    3000   0.24716251   -3.1229911            0   -2.8941966   -1.5679037    9160.7867 
    3200   0.25062434   -3.1095627            0   -2.8775636    -1.592719    9188.7794 
    3400   0.25482389   -3.0960827            0   -2.8601961   -1.6086775    9228.2692 
    3600   0.25929863   -3.0824972            0   -2.8424684    -1.618507     9265.315 
    3800   0.26418097   -3.0689657            0   -2.8244174    -1.624401    9299.7528 
    4000   0.26915666   -3.0554844            0   -2.8063302   -1.6273261    9337.3681 
    4200   0.27389719   -3.0420943            0   -2.7885518   -1.6269925    9371.7529 
    4400   0.27882908   -3.0285806            0   -2.7704727   -1.6193381    9415.1892 
    4600   0.28377125   -3.0148725            0   -2.7521898   -1.6075213    9445.4648 
    4800   0.28855954   -3.0010559            0   -2.7339407   -1.5848898    9484.3207 
    5000    0.2934105   -2.9874581            0   -2.7158524   -1.5582308    9513.8852 
Loop time of 17.202 on 1 procs for 5000 steps with 8141 atoms

Performance: 75340.290 tau/day, 290.665 timesteps/s
99.9% CPU use with 1 MPI tasks x no OpenMP threads

MPI task timing breakdown:
Section |  min time  |  avg time  |  max time  |%varavg| %total
---------------------------------------------------------------
Pair    | 14.767     | 14.767     | 14.767     |   0.0 | 85.84
Neigh   | 0.42983    | 0.42983    | 0.42983    |   0.0 |  2.50
Comm    | 0.01024    | 0.01024    | 0.01024    |   0.0 |  0.06
Output  | 0.19212    | 0.19212    | 0.19212    |   0.0 |  1.12
Modify  | 1.3234     | 1.3234     | 1.3234     |   0.0 |  7.69
Other   |            | 0.4795     |            |       |  2.79

Nlocal:        8141.00 ave        8141 max        8141 min
Histogram: 1 0 0 0 0 0 0 0 0 0
Nghost:        0.00000 ave           0 max           0 min
Histogram: 1 0 0 0 0 0 0 0 0 0
Neighs:        71349.0 ave       71349 max       71349 min
Histogram: 1 0 0 0 0 0 0 0 0 0

Total # of neighbors = 71349
Ave neighs/atom = 8.7641567
Neighbor list builds = 70
Dangerous builds = 0
Total wall time: 0:00:17
