LAMMPS (29 Oct 2020)
# 2d LJ crack simulation

dimension	2
boundary	s s p

atom_style	atomic
neighbor	0.3 bin
neigh_modify	delay 5

# create geometry

lattice		hex 0.93
Lattice spacing in x,y,z = 1.1142771 1.9299846 1.1142771
region		box block 0 100 0 40 -0.25 0.25
create_box	5 box
Created orthogonal box = (0.0000000 0.0000000 -0.27856928) to (111.42771 77.199383 0.27856928)
  1 by 1 by 1 MPI processor grid
create_atoms	1 box
Created 8141 atoms
  create_atoms CPU = 0.005 seconds

mass		1 2.5
mass		2 2.5
mass		3 2.5
mass		4 2.5
mass		5 2.5

# LJ potentials

pair_style	lj/cut 2.5
pair_coeff	* * 1.0 1.0 2.5

# define groups

region	        1 block INF INF INF 1.25 INF INF
group		lower region 1
302 atoms in group lower
region		2 block INF INF 38.75 INF INF INF
group		upper region 2
302 atoms in group upper
group		boundary union lower upper
604 atoms in group boundary
group		mobile subtract all boundary
7537 atoms in group mobile

region		leftupper block INF 20 20 INF INF INF
region		leftlower block INF 20 INF 20 INF INF
group		leftupper region leftupper
841 atoms in group leftupper
group		leftlower region leftlower
841 atoms in group leftlower

set		group leftupper type 2
Setting atom values ...
  841 settings made for type
set		group leftlower type 3
Setting atom values ...
  841 settings made for type
set		group lower type 4
Setting atom values ...
  302 settings made for type
set		group upper type 5
Setting atom values ...
  302 settings made for type

# initial velocities

compute	  	new mobile temp
velocity	mobile create 0.01 887723 temp new
velocity	upper set 0.0 0.3 0.0
velocity	mobile ramp vy 0.0 0.3 y 1.25 38.75 sum yes

# fixes

fix		1 all nve
fix		2 boundary setforce NULL 0.0 0.0

# run

timestep	0.003
thermo		200
thermo_modify	temp new
WARNING: Temperature for thermo pressure is not for group all (../thermo.cpp:472)

neigh_modify	exclude type 2 3

dump		1 all atom 500 dump.crack

#dump		2 all image 250 image.*.jpg type type #		zoom 1.6 adiam 1.5
#dump_modify	2 pad 4

#dump		3 all movie 250 movie.mpg type type #		zoom 1.6 adiam 1.5
#dump_modify	3 pad 4

run		5000
Neighbor list info ...
  update every 1 steps, delay 5 steps, check yes
  max neighbors/atom: 2000, page size: 100000
  master list distance cutoff = 2.8
  ghost atom cutoff = 2.8
  binsize = 1.4, bins = 80 56 1
  1 neighbor lists, perpetual/occasional/extra = 1 0 0
  (1) pair lj/cut, perpetual
      attributes: half, newton on
      pair build: half/bin/atomonly/newton
      stencil: half/bin/2d/newton
      bin: standard
Per MPI rank memory allocation (min/avg/max) = 4.423 | 4.423 | 4.423 Mbytes
Step Temp E_pair E_mol TotEng Press Volume 
       0   0.14933511   -3.2595015            0   -3.1212642  0.037043173    8605.5917 
     200    0.1441797   -3.2536494            0   -3.1201845  -0.16593297    8640.4456 
     400   0.14339856   -3.2501896            0   -3.1174477  -0.36621474    8680.6534 
     600   0.14366251   -3.2463003            0   -3.1133141  -0.54991706     8726.029 
     800   0.14421453   -3.2408839            0   -3.1073867  -0.71499634    8751.0505 
    1000   0.14483562   -3.2340854            0   -3.1000133  -0.85745638    8793.4073 
    1200   0.14595545   -3.2263294            0   -3.0912207  -0.98017778    8836.6279 
    1400   0.14724099    -3.217739            0   -3.0814402   -1.0929676    8860.0101 
    1600   0.14836836   -3.2083317            0   -3.0709894    -1.187108    8902.7942 
    1800   0.15022368   -3.1981659            0   -3.0591061   -1.2672768    8942.6562 
    2000   0.15234547   -3.1874873            0   -3.0464634   -1.3386583    8968.2392 
    2200   0.15483155   -3.1762471            0   -3.0329219   -1.3950158    9010.8182 
    2400   0.15752208   -3.1646262            0   -3.0188104   -1.4433536    9045.6187 
    2600   0.16086037   -3.1527207            0   -3.0038147   -1.4799047    9085.9411 
    2800   0.16444933   -3.1405063            0    -2.988278   -1.5048098    9121.8726 
    3000   0.16756103   -3.1281183            0   -2.9730096   -1.5235311    9155.2353 
    3200   0.17123393   -3.1156902            0   -2.9571815   -1.5346395     9191.139 
    3400   0.17501798   -3.1032907            0   -2.9412792   -1.5419816    9223.2584 
    3600   0.17900816   -3.0907856            0   -2.9250805   -1.5409386    9265.8416 
    3800   0.18280541   -3.0781271            0   -2.9089069   -1.5331958    9293.7279 
    4000   0.18667242    -3.065454            0   -2.8926542    -1.515452    9332.7099 
    4200   0.19051593   -3.0525057            0    -2.876148   -1.4916628    9360.8043 
    4400   0.19431215   -3.0396157            0   -2.8597439   -1.4604105    9397.0323 
    4600   0.19847518   -3.0269842            0   -2.8432588   -1.4200965    9427.4584 
    4800   0.20232716   -3.0141809            0   -2.8268897   -1.3731834    9468.5467 
    5000   0.20667161   -3.0018301            0   -2.8105173   -1.3228447    9492.6701 
Loop time of 17.8242 on 1 procs for 5000 steps with 8141 atoms

Performance: 72710.277 tau/day, 280.518 timesteps/s
99.9% CPU use with 1 MPI tasks x no OpenMP threads

MPI task timing breakdown:
Section |  min time  |  avg time  |  max time  |%varavg| %total
---------------------------------------------------------------
Pair    | 14.775     | 14.775     | 14.775     |   0.0 | 82.89
Neigh   | 0.50215    | 0.50215    | 0.50215    |   0.0 |  2.82
Comm    | 0.010473   | 0.010473   | 0.010473   |   0.0 |  0.06
Output  | 0.19173    | 0.19173    | 0.19173    |   0.0 |  1.08
Modify  | 1.8669     | 1.8669     | 1.8669     |   0.0 | 10.47
Other   |            | 0.4778     |            |       |  2.68

Nlocal:        8141.00 ave        8141 max        8141 min
Histogram: 1 0 0 0 0 0 0 0 0 0
Nghost:        0.00000 ave           0 max           0 min
Histogram: 1 0 0 0 0 0 0 0 0 0
Neighs:        71331.0 ave       71331 max       71331 min
Histogram: 1 0 0 0 0 0 0 0 0 0

Total # of neighbors = 71331
Ave neighs/atom = 8.7619457
Neighbor list builds = 78
Dangerous builds = 0
Total wall time: 0:00:17
