LAMMPS (29 Oct 2020)
# 2d LJ crack simulation

dimension	2
boundary	s s p

atom_style	atomic
neighbor	0.3 bin
neigh_modify	delay 5

# create geometry

lattice		hex 0.93
Lattice spacing in x,y,z = 1.1142771 1.9299846 1.1142771
region		box block 0 100 0 40 -0.25 0.25
create_box	5 box
Created orthogonal box = (0.0000000 0.0000000 -0.27856928) to (111.42771 77.199383 0.27856928)
  1 by 1 by 1 MPI processor grid
create_atoms	1 box
Created 8141 atoms
  create_atoms CPU = 0.005 seconds

mass		1 3.5
mass		2 3.5
mass		3 3.5
mass		4 3.5
mass		5 3.5

# LJ potentials

pair_style	lj/cut 2.5
pair_coeff	* * 1.0 1.0 2.5

# define groups

region	        1 block INF INF INF 1.25 INF INF
group		lower region 1
302 atoms in group lower
region		2 block INF INF 38.75 INF INF INF
group		upper region 2
302 atoms in group upper
group		boundary union lower upper
604 atoms in group boundary
group		mobile subtract all boundary
7537 atoms in group mobile

region		leftupper block INF 20 20 INF INF INF
region		leftlower block INF 20 INF 20 INF INF
group		leftupper region leftupper
841 atoms in group leftupper
group		leftlower region leftlower
841 atoms in group leftlower

set		group leftupper type 2
Setting atom values ...
  841 settings made for type
set		group leftlower type 3
Setting atom values ...
  841 settings made for type
set		group lower type 4
Setting atom values ...
  302 settings made for type
set		group upper type 5
Setting atom values ...
  302 settings made for type

# initial velocities

compute	  	new mobile temp
velocity	mobile create 0.01 887723 temp new
velocity	upper set 0.0 0.3 0.0
velocity	mobile ramp vy 0.0 0.3 y 1.25 38.75 sum yes

# fixes

fix		1 all nve
fix		2 boundary setforce NULL 0.0 0.0

# run

timestep	0.003
thermo		200
thermo_modify	temp new
WARNING: Temperature for thermo pressure is not for group all (../thermo.cpp:472)

neigh_modify	exclude type 2 3

dump		1 all atom 500 dump.crack

#dump		2 all image 250 image.*.jpg type type #		zoom 1.6 adiam 1.5
#dump_modify	2 pad 4

#dump		3 all movie 250 movie.mpg type type #		zoom 1.6 adiam 1.5
#dump_modify	3 pad 4

run		5000
Neighbor list info ...
  update every 1 steps, delay 5 steps, check yes
  max neighbors/atom: 2000, page size: 100000
  master list distance cutoff = 2.8
  ghost atom cutoff = 2.8
  binsize = 1.4, bins = 80 56 1
  1 neighbor lists, perpetual/occasional/extra = 1 0 0
  (1) pair lj/cut, perpetual
      attributes: half, newton on
      pair build: half/bin/atomonly/newton
      stencil: half/bin/2d/newton
      bin: standard
Per MPI rank memory allocation (min/avg/max) = 4.423 | 4.423 | 4.423 Mbytes
Step Temp E_pair E_mol TotEng Press Volume 
       0   0.20514592   -3.2595015            0    -3.069601  0.085917238    8605.5917 
     200   0.20067031   -3.2543189            0   -3.0685614  -0.12318235    8640.8052 
     400    0.1997344   -3.2506622            0   -3.0657711  -0.32511231    8682.6137 
     600   0.19917705   -3.2460296            0   -3.0616544  -0.50883022    8713.1848 
     800   0.19941883   -3.2405811            0   -3.0559821   -0.6739748    8757.2997 
    1000   0.19993109   -3.2336845            0   -3.0486113  -0.82232347    8798.4279 
    1200   0.20087938   -3.2259635            0   -3.0400125  -0.95540877    8826.7197 
    1400   0.20209468   -3.2171384            0   -3.0300624   -1.0678782    8871.8985 
    1600   0.20347244   -3.2074676            0   -3.0191163   -1.1716085    8898.2349 
    1800   0.20485059   -3.1971485            0   -3.0075214   -1.2594777    8938.2583 
    2000   0.20641887   -3.1861056            0   -2.9950268   -1.3335734    8981.9585 
    2200   0.20869076   -3.1745221            0   -2.9813402   -1.3999414    9008.2115 
    2400    0.2111596    -3.162499            0   -2.9670317   -1.4533766    9048.7183 
    2600   0.21401007   -3.1500904            0   -2.9519845   -1.4967915    9092.0549 
    2800   0.21715204   -3.1373776            0   -2.9363632   -1.5358127    9115.3796 
    3000    0.2205646   -3.1243948            0   -2.9202215   -1.5630421    9156.7161 
    3200    0.2246462   -3.1113198            0   -2.9033682   -1.5814258     9194.886 
    3400   0.22901506   -3.0981519            0   -2.8861562   -1.5943685    9230.8317 
    3600   0.23358834   -3.0849668            0   -2.8687376   -1.6033583    9264.6126 
    3800   0.23791148   -3.0718936            0   -2.8516625   -1.6090897    9302.0101 
    4000   0.24256966   -3.0587248            0   -2.8341817   -1.6080121    9335.3794 
    4200   0.24729969   -3.0454665            0    -2.816545   -1.6011175    9377.6516 
    4400    0.2518351   -3.0319608            0   -2.7988409   -1.5861019    9407.6999 
    4600   0.25629433   -3.0184442            0   -2.7811964   -1.5630155    9447.7438 
    4800   0.26055287    -3.004973            0   -2.7637832   -1.5359774    9475.3999 
    5000   0.26498961   -2.9915556            0   -2.7462588   -1.5035712    9510.7989 
Loop time of 17.7553 on 1 procs for 5000 steps with 8141 atoms

Performance: 72992.405 tau/day, 281.606 timesteps/s
99.9% CPU use with 1 MPI tasks x no OpenMP threads

MPI task timing breakdown:
Section |  min time  |  avg time  |  max time  |%varavg| %total
---------------------------------------------------------------
Pair    | 14.766     | 14.766     | 14.766     |   0.0 | 83.17
Neigh   | 0.44306    | 0.44306    | 0.44306    |   0.0 |  2.50
Comm    | 0.0099757  | 0.0099757  | 0.0099757  |   0.0 |  0.06
Output  | 0.19248    | 0.19248    | 0.19248    |   0.0 |  1.08
Modify  | 1.8642     | 1.8642     | 1.8642     |   0.0 | 10.50
Other   |            | 0.4791     |            |       |  2.70

Nlocal:        8141.00 ave        8141 max        8141 min
Histogram: 1 0 0 0 0 0 0 0 0 0
Nghost:        0.00000 ave           0 max           0 min
Histogram: 1 0 0 0 0 0 0 0 0 0
Neighs:        71326.0 ave       71326 max       71326 min
Histogram: 1 0 0 0 0 0 0 0 0 0

Total # of neighbors = 71326
Ave neighs/atom = 8.7613315
Neighbor list builds = 72
Dangerous builds = 0
Total wall time: 0:00:17
